
FAST Summary File

Predictions were generated on 17-Apr-2019 at 10:46:17 using FAST (v8.16.00a-bjj, 27-Jul-2016), compiled as a 32-bit application using single precision
  compiled with
    NWTC Subroutine Library (v2.09.00, 23-Jul-2016)
    ElastoDyn (v1.04.00a-bjj, 26-Jul-2016)
    BeamDyn (unknown version, unknown date) [not called]
    InflowWind (v3.03.00, 26-Jul-2016)
    AeroDyn14 (v14.05.01a-bjj, 25-Jul-2016)
    AeroDyn (unknown version, unknown date) [not called]
    ServoDyn (v1.06.00a-bjj, 26-Jul-2016)
    HydroDyn (unknown version, unknown date) [not called]
    SubDyn (unknown version, unknown date) [not called]
    MAP (unknown version, unknown date) [not called]
    FEAMooring (unknown version, unknown date) [not called]
    MoorDyn (unknown version, unknown date) [not called]
    OrcaFlexInterface (unknown version, unknown date) [not called]
    IceFloe (unknown version, unknown date) [not called]
    IceDyn (unknown version, unknown date) [not called]


Modeling a land-based turbine
Description from the FAST input file: 
  FAST Certification Test #01: AWT-27CR2 with many DOFs with fixed yaw error and steady wind

Interpolation order for input/output time histories: 1 (linear)
Number of correction iterations:  0


   Requested Time Steps  
  -------------------------------------------------
  Component          Time Step (s)    Subcycles (-)
  -----------------  ---------------  -------------
  FAST (glue code)    4.000E-03
  InflowWind          4.000E-03              1
  ElastoDyn           4.000E-03              1
  AeroDyn14           4.000E-03              1
  ServoDyn            4.000E-03              1
  FAST output files   2.000E-02              5^-1


   Requested Channels in FAST Output File(s)  
  --------------------------------------------
  Number  Name        Units       Generated by
  ------  ----------  ----------  ------------
       1  Time        (s)         FAST
       2  Wind1VelX   (m/s)       InflowWind
       3  Wind1VelY   (m/s)       InflowWind
       4  Wind1VelZ   (m/s)       InflowWind
       5  Wind2VelX   (m/s)       InflowWind
       6  Wind2VelY   (m/s)       InflowWind
       7  Wind2VelZ   (m/s)       InflowWind
       8  OoPDefl1    (m)         ElastoDyn
       9  IPDefl1     (m)         ElastoDyn
      10  TwstDefl1   (deg)       ElastoDyn
      11  BldPitch1   (deg)       ElastoDyn
      12  Azimuth     (deg)       ElastoDyn
      13  RotSpeed    (rpm)       ElastoDyn
      14  GenSpeed    (rpm)       ElastoDyn
      15  TTDspFA     (m)         ElastoDyn
      16  TTDspSS     (m)         ElastoDyn
      17  TTDspTwst   (deg)       ElastoDyn
      18  Spn2MLxb1   (kN·m)      ElastoDyn
      19  Spn2MLyb1   (kN·m)      ElastoDyn
      20  RootFxb1    (kN)        ElastoDyn
      21  RootFyb1    (kN)        ElastoDyn
      22  RootFzb1    (kN)        ElastoDyn
      23  RootMxb1    (kN·m)      ElastoDyn
      24  RootMyb1    (kN·m)      ElastoDyn
      25  RootMzb1    (kN·m)      ElastoDyn
      26  RotTorq     (kN·m)      ElastoDyn
      27  LSSGagMya   (kN·m)      ElastoDyn
      28  LSSGagMza   (kN·m)      ElastoDyn
      29  YawBrFxp    (kN)        ElastoDyn
      30  YawBrFyp    (kN)        ElastoDyn
      31  YawBrFzp    (kN)        ElastoDyn
      32  YawBrMxp    (kN·m)      ElastoDyn
      33  YawBrMyp    (kN·m)      ElastoDyn
      34  YawBrMzp    (kN·m)      ElastoDyn
      35  TwrBsFxt    (kN)        ElastoDyn
      36  TwrBsFyt    (kN)        ElastoDyn
      37  TwrBsFzt    (kN)        ElastoDyn
      38  TwrBsMxt    (kN·m)      ElastoDyn
      39  TwrBsMyt    (kN·m)      ElastoDyn
      40  TwrBsMzt    (kN·m)      ElastoDyn
      41  GenPwr      (kW)        ServoDyn
      42  GenTq       (kN·m)      ServoDyn
